 VARIABLES="X",        "Y",        "Z"
 ZONE T = ./Data/body001, N =         510  E =        1016  F=FEPOINT, ET=TRIANGLE
  -46.193980000000003       -86.602540000000005       -19.134170000000001     
  -50.000000000000000       -86.602540000000005       -7.1054269999999997E-015
  -46.193980000000003       -86.602540000000005        19.134170000000001     
  -35.355339999999998       -86.602540000000005       -35.355339999999998     
  -35.355339999999998       -86.602540000000005        35.355339999999998     
  -19.134170000000001       -86.602540000000005        46.193980000000003     
  -3.5527140000000002E-015  -86.602540000000005        50.000000000000000     
   19.134170000000001       -86.602540000000005        46.193980000000003     
   35.355339999999998       -86.602540000000005        35.355339999999998     
   46.193980000000003       -86.602540000000005        19.134170000000001     
   50.000000000000000       -86.602540000000005        7.1054269999999997E-015
   46.193980000000003       -86.602540000000005       -19.134170000000001     
   35.355339999999998       -86.602540000000005       -35.355339999999998     
   19.134170000000001       -86.602540000000005       -46.193980000000003     
   7.1054269999999997E-015  -86.602540000000005       -50.000000000000000     
  -19.134170000000001       -86.602540000000005       -46.193980000000003     
  -46.193980000000003        86.602540000000005       -19.134170000000001     
  -50.000000000000000        86.602540000000005       -7.1054269999999997E-015
  -46.193980000000003        86.602540000000005        19.134170000000001     
  -35.355339999999998        86.602540000000005       -35.355339999999998     
  -35.355339999999998        86.602540000000005        35.355339999999998     
  -19.134170000000001        86.602540000000005        46.193980000000003     
  -3.5527140000000002E-015   86.602540000000005        50.000000000000000     
   19.134170000000001        86.602540000000005        46.193980000000003     
   35.355339999999998        86.602540000000005        35.355339999999998     
   46.193980000000003        86.602540000000005        19.134170000000001     
   50.000000000000000        86.602540000000005        7.1054269999999997E-015
   46.193980000000003        86.602540000000005       -19.134170000000001     
   35.355339999999998        86.602540000000005       -35.355339999999998     
   19.134170000000001        86.602540000000005       -46.193980000000003     
   7.1054269999999997E-015   86.602540000000005       -50.000000000000000     
  -19.134170000000001        86.602540000000005       -46.193980000000003     
  -46.305639999999997       -75.574960000000004       -46.305639999999997     
  -55.582349999999998       -61.815899999999999       -55.582349999999998     
  -62.850160000000002       -45.822650000000003       -62.850160000000002     
  -67.846400000000003       -28.173259999999999       -67.846400000000003     
  -70.390500000000003       -9.5056049999999992       -70.390500000000003     
  -70.390500000000003        9.5056049999999992       -70.390500000000003     
  -67.846400000000003        28.173259999999999       -67.846400000000003     
  -62.850160000000002        45.822650000000003       -62.850160000000002     
  -55.582349999999998        61.815899999999999       -55.582349999999998     
  -46.305639999999997        75.574960000000004       -46.305639999999997     
  -46.305639999999997       -75.574960000000004        46.305639999999997     
  -55.582349999999998       -61.815899999999999        55.582349999999998     
  -62.850160000000002       -45.822650000000003        62.850160000000002     
  -67.846400000000003       -28.173259999999999        67.846400000000003     
  -70.390500000000003       -9.5056049999999992        70.390500000000003     
  -70.390500000000003        9.5056049999999992        70.390500000000003     
  -67.846400000000003        28.173259999999999        67.846400000000003     
  -62.850160000000002        45.822650000000003        62.850160000000002     
  -55.582349999999998        61.815899999999999        55.582349999999998     
  -46.305639999999997        75.574960000000004        46.305639999999997     
   46.305639999999997       -75.574960000000004        46.305639999999997     
   55.582349999999998       -61.815899999999999        55.582349999999998     
   62.850160000000002       -45.822650000000003        62.850160000000002     
   67.846400000000003       -28.173259999999999        67.846400000000003     
   70.390500000000003       -9.5056049999999992        70.390500000000003     
   70.390500000000003        9.5056049999999992        70.390500000000003     
   67.846400000000003        28.173259999999999        67.846400000000003     
   62.850160000000002        45.822650000000003        62.850160000000002     
   55.582349999999998        61.815899999999999        55.582349999999998     
   46.305639999999997        75.574960000000004        46.305639999999997     
   46.305639999999997       -75.574960000000004       -46.305639999999997     
   55.582349999999998       -61.815899999999999       -55.582349999999998     
   62.850160000000002       -45.822650000000003       -62.850160000000002     
   67.846400000000003       -28.173259999999999       -67.846400000000003     
   70.390500000000003       -9.5056049999999992       -70.390500000000003     
   70.390500000000003        9.5056049999999992       -70.390500000000003     
   67.846400000000003        28.173259999999999       -67.846400000000003     
   62.850160000000002        45.822650000000003       -62.850160000000002     
   55.582349999999998        61.815899999999999       -55.582349999999998     
   46.305639999999997        75.574960000000004       -46.305639999999997     
   20.555260000000001       -93.271929999999998       -29.628160000000001     
   33.150300000000001       -93.316959999999995       -13.892560000000000     
   6.7718939999999996       -93.987129999999993        33.474780000000003     
  -7.3377540000000003       -93.127489999999995        35.685130000000001     
  -4.7180920000000004       -97.689260000000004        20.845820000000000     
  -19.135330000000000       -94.752020000000002        25.610430000000001     
   22.092630000000000       -93.303709999999995        28.396000000000001     
  -31.122319999999998       -90.899810000000002        27.724110000000000     
  -2.4650580000000000       -99.886510000000001        4.0754469999999996     
 -0.90731189999999995       -99.192070000000001       -12.653460000000001     
  -14.403449999999999       -98.701260000000005       -7.1134269999999997     
  -25.944530000000000       -96.559470000000005       -1.7748330000000001     
  -28.242200000000000       -94.279510000000002       -17.713030000000000     
  -37.109259999999999       -92.687370000000001       -5.6528000000000000     
  0.28377550000000001       -94.384060000000005       -33.038899999999998     
   33.316440000000000       -91.775909999999996        21.614740000000001     
   35.988819999999997       -93.013790000000000        7.2966540000000002     
   25.077480000000001       -95.624309999999994        15.070190000000000     
   22.092330000000000       -97.523989999999998        1.0003409999999999     
  -19.374420000000001       -92.909189999999995       -31.504200000000001     
   11.433180000000000       -98.259159999999994        14.643070000000000     
   14.297140000000001       -97.789850000000001       -15.255710000000001     
  -32.931919999999998       -93.813839999999999        10.698280000000000     
  -16.826319999999999       -98.171589999999995        8.9002119999999998     
   9.2205759999999994       -99.556979999999996       -1.8405210000000001     
  -12.734170000000001       -96.928299999999993       -21.041519999999998     
   23.498419999999999        94.410169999999994        23.120210000000000     
   9.1973369999999992        99.069609999999997        10.031029999999999     
   5.8631099999999998        96.917090000000002        23.931170000000002     
  -30.824790000000000        93.487179999999995        17.606210000000001     
  -22.313150000000000        92.643940000000001        30.318719999999999     
  -17.029859999999999        96.421340000000001        20.320170000000001     
   8.5467410000000008        92.887500000000003        36.039790000000004     
  -7.3317850000000000        94.417800000000000        32.117339999999999     
  -18.493050000000000        97.994169999999997        7.4263170000000001     
  -32.853369999999998        94.438720000000004        1.4087529999999999     
  -40.365040000000000        91.031139999999994        9.1648890000000005     
  -19.385860000000001        97.637760000000000       -9.5423810000000007     
  -34.625689999999999        92.557000000000002       -15.305690000000000     
   7.3899319999999999        93.721279999999993       -34.083880000000001     
   13.528530000000000        96.920739999999995       -20.575450000000000     
   21.554120000000001        92.865250000000003       -30.190480000000001     
  -2.7618600000000000        98.009370000000004       -19.660509999999999     
  -7.2825879999999996        93.009990000000002       -36.001449999999998     
   30.916110000000000        94.246790000000004       -12.717590000000000     
   35.354309999999998        93.327119999999994        6.3341139999999996     
  -20.396290000000000        93.916950000000000       -27.633260000000000     
  -5.4239740000000003        98.615039999999993        15.673400000000001     
   23.000710000000002        97.238839999999996        3.9465420000000000     
   11.951540000000000        99.032330000000002       -7.0539449999999997     
  -4.3662580000000002        99.900639999999996      -0.89336369999999998     
  -75.988709999999998        36.007050000000000       -54.122169999999997     
  -69.560720000000003        52.491920000000000       -49.050020000000004     
  -51.484240000000000        80.031949999999995       -30.728819999999999     
  -53.632050000000000       -79.561199999999999       -28.171230000000001     
  -63.034779999999998        67.248599999999996        38.784559999999999     
  -50.334960000000002        79.749589999999998        33.262500000000003     
  -54.869639999999997       -78.174099999999996        29.633310000000002     
  -59.003039999999999       -80.209029999999998        9.2278599999999997     
  -66.344120000000004       -72.644030000000001        17.924920000000000     
  -59.268709999999999       -68.533810000000003        42.312359999999998     
  -61.970080000000003       -68.183030000000002       -38.868789999999997     
  -67.683830000000000       -70.757639999999995       -20.304079999999999     
  -62.537120000000002        70.917050000000003       -32.555799999999998     
  -58.891199999999998       -80.209919999999997       -9.9093909999999994     
  -67.361840000000001        53.293849999999999        51.206919999999997     
  -76.372690000000006        50.810360000000003        39.818579999999997     
  -68.686779999999999       -54.936959999999999       -47.582099999999997     
  -69.406750000000002       -55.154420000000002        46.267629999999997     
  -77.525229999999993        61.730840000000001        13.384399999999999     
  -68.645640000000000        68.813289999999995        23.505490000000002     
  -74.961879999999994        59.842509999999997        28.277020000000000     
  -75.978200000000001        36.948990000000002        53.498449999999998     
  -80.732740000000007        16.074639999999999       -56.778779999999998     
  -86.653899999999993        27.143460000000001       -41.884770000000003     
  -90.529910000000001        10.613569999999999       -41.130110000000002     
  -89.036469999999994       -10.515940000000001        44.293590000000002     
  -93.510530000000003       -19.249600000000001        29.752890000000001     
  -96.394800000000004       -4.5487880000000001        26.217369999999999     
  -84.824870000000004        47.091929999999998        24.229970000000002     
  -86.787220000000005        49.034010000000002        7.9776800000000003     
  -96.959760000000003       -24.219320000000000       -3.4970150000000002     
  -97.388819999999996       -18.679430000000000        12.903359999999999     
  -93.579440000000005       -34.860109999999999        5.2592679999999996     
  -62.448480000000004        64.549279999999996       -43.972470000000001     
  -92.000249999999994        8.0027259999999991        38.365470000000002     
  -83.746290000000002        6.2291330000000000        54.293239999999997     
  -77.767330000000001       0.34291110000000002       -62.865929999999999     
  -99.639319999999998      -0.43475609999999998        8.4744969999999995     
  -99.251329999999996       -11.160860000000000       -4.9607250000000001     
  -80.762469999999993       -23.348479999999999        54.150469999999999     
  -78.424220000000005       -9.4699299999999997        61.318530000000003     
  -96.765609999999995        21.488849999999999       -13.215370000000000     
  -91.455830000000006        39.961689999999997       -6.2366120000000000     
  -96.087620000000001        27.649650000000001        1.6332050000000000     
  -95.782839999999993       -20.100130000000000       -20.533690000000000     
  -89.349739999999997       -23.258430000000001       -38.414450000000002     
  -93.037430000000001       -6.3200459999999996       -36.112229999999997     
  -75.373009999999994       -38.280980000000000        53.417940000000002     
  -91.691310000000001       -32.547980000000003        23.094000000000001     
  -77.738150000000005        20.610160000000000        59.430639999999997     
  -92.316760000000002        36.909599999999998        10.737700000000000     
  -96.097880000000004        24.837700000000002        12.177280000000000     
  -81.358800000000002        44.055669999999999       -37.945290000000000     
  -73.443960000000004        58.510539999999999       -34.387509999999999     
  -83.601780000000005        50.457039999999999       -21.559889999999999     
  -92.995689999999996       -34.473550000000003       -12.781890000000001     
  -99.525369999999995        4.3427930000000003       -8.7086590000000008     
  -96.512209999999996        7.6143720000000004       -25.048249999999999     
  -68.129040000000003       -66.161410000000004        31.322550000000000     
  -71.805350000000004        69.537019999999998       -2.9315560000000001     
  -62.153430000000000        76.219279999999998       -18.098929999999999     
  -60.078440000000001        79.886089999999996       -2.9656500000000001     
  -59.244979999999998        77.220969999999994        22.955480000000001     
  -66.413860000000000        73.919460000000001        11.185409999999999     
  -56.770130000000002        81.678939999999997        10.281250000000000     
  -79.122209999999995       -13.473910000000000       -59.650069999999999     
  -86.254300000000001       -14.479600000000000       -48.482329999999997     
  -90.573779999999999        34.069789999999998       -25.211910000000000     
  -86.440870000000004       -30.079719999999998        40.288780000000003     
  -79.730450000000005       -44.138700000000000        41.168329999999997     
  -92.245769999999993        30.323290000000000        23.900110000000002     
  -96.859729999999999        13.590150000000000        20.820640000000001     
  -71.226370000000003       -70.189139999999995       0.53727990000000003     
  -85.423490000000001       -41.891230000000000        30.788830000000001     
  -78.571529999999996       -53.505969999999998        31.042339999999999     
  -86.250550000000004       -48.112420000000000        15.685620000000000     
  -74.230220000000003       -59.148780000000002       -31.484850000000002     
  -85.616519999999994        21.763610000000000        46.863169999999997     
  -85.494209999999995        35.320790000000002        37.989229999999999     
  -91.623059999999995        21.660229999999999        33.705329999999996     
  -85.493560000000002       -1.3458079999999999       -51.855950000000000     
  -79.106160000000003       -59.785899999999998       -12.956080000000000     
  -81.167760000000001       -58.280819999999999        3.8911099999999998     
  -81.117159999999998       -26.683499999999999       -52.038420000000002     
  -74.399580000000000       -41.108939999999997       -52.675970000000000     
  -93.254869999999997        20.086900000000000       -30.000779999999999     
  -90.368039999999993       -32.670639999999999       -27.681159999999998     
  -84.026910000000001       -36.868850000000002       -39.751300000000001     
  -84.959490000000002       -46.558390000000003       -24.783090000000001     
  -74.001210000000000        64.508809999999997       -19.037669999999999     
  -82.356579999999994        56.553570000000001       -4.3688170000000000     
  -87.649439999999998       -47.946219999999997       -4.3284909999999996     
  -98.736180000000004        15.439679999999999        3.5751740000000001     
  -77.891329999999996       -48.267170000000000       -40.040250000000000     
  -98.030659999999997       -5.1514309999999996       -19.064409999999999     
  -76.239689999999996       -62.376159999999999        17.225650000000002     
   30.358219999999999        81.029759999999996        50.125399999999999     
  -30.369759999999999        78.965999999999994        53.310870000000001     
  -32.696030000000000       -79.007090000000005        51.854120000000002     
   30.593160000000001       -79.169359999999998        52.879770000000001     
  -1.7288660000000000       -75.592439999999996        65.443060000000003     
   11.260770000000001       -69.604339999999993        70.911429999999996     
   14.109610000000000       -79.374229999999997        59.166289999999996     
   24.730740000000001       -48.710960000000000        83.759379999999993     
   9.7072450000000003       -58.939970000000002        80.198809999999995     
   7.8801050000000004       -48.379159999999999        87.162840000000003     
   40.240679999999998       -68.192499999999995        61.077570000000001     
   25.332110000000000       -70.660370000000000        66.071150000000003     
   21.007660000000001       -62.262949999999996        75.379069999999999     
  -43.058349999999997       -69.813329999999993        57.202080000000002     
  -32.028129999999997       -69.327420000000004        64.559330000000003     
  -56.045400000000001       -36.099229999999999        74.536959999999993     
  -46.817749999999997       -46.194130000000001        75.327290000000005     
   47.879159999999999        54.236730000000001        69.035960000000003     
   43.634909999999998        65.842020000000005        61.325550000000000     
   33.794130000000003        61.074440000000003        71.609150000000000     
   61.993389999999998        15.645300000000001        76.889820000000000     
   56.888770000000001        29.604099999999999        76.728520000000003     
   54.360270000000000       -36.245460000000001        75.704870000000000     
   48.608010000000000       -54.013420000000004        68.700890000000001     
   41.189560000000000       -47.153770000000002        77.973979999999997     
  -1.2582169999999999        74.481939999999994        66.714740000000006     
   16.711340000000000        79.302120000000002        58.582470000000001     
   18.012650000000001        68.164289999999994        70.916669999999996     
   3.4269289999999999        61.954490000000000        78.421279999999996     
  -40.232219999999998        67.551720000000003        61.791049999999998     
  -25.344300000000000        32.172719999999998        91.228189999999998     
  -35.266559999999998        17.353990000000000        91.951669999999993     
  -41.622549999999997        31.922540000000001        85.138210000000001     
   8.5276379999999996       -10.879470000000000        99.039980000000000     
   25.095430000000000       -3.8137180000000002        96.724739999999997     
   18.214810000000000       -21.237909999999999        96.006100000000004     
  -55.867130000000003        31.248500000000000        76.827039999999997     
  -61.585749999999997        18.756409999999999        76.520539999999997     
   61.104640000000003       -19.471679999999999        76.727289999999996     
  -22.828420000000001        70.231369999999998        67.427130000000005     
  -60.147550000000003        3.9621420000000001        79.790809999999993     
   59.560040000000001       -2.4818060000000002        80.289730000000006     
  -1.2133620000000001       -23.219380000000001        97.259379999999993     
  -17.483640000000001       -32.266559999999998        93.022530000000003     
  -19.425490000000000       -15.713369999999999        96.828410000000005     
   12.709790000000000       -36.091679999999997        92.389669999999995     
   26.410290000000000       -32.377560000000003        90.852580000000003     
   43.434669999999997       -3.5203980000000001        90.005759999999995     
   50.877929999999999        13.780530000000001        84.979609999999994     
   37.235180000000000        47.310459999999999        79.845240000000004     
   28.701879999999999        39.734439999999999        87.162930000000003     
   19.882999999999999        53.298580000000001        82.243099999999998     
   49.537260000000003       -19.732180000000000        84.597290000000001     
  -45.031460000000003       -32.493800000000000        83.164420000000007     
  -45.439689999999999       -17.985299999999999        87.245419999999996     
  -32.601109999999998       -25.421980000000001        91.054329999999993     
  -6.3886669999999999       -5.8455630000000003        99.624369999999999     
   7.4966970000000002        3.4174440000000001        99.660030000000006     
  -46.547069999999998        45.245320000000000        76.067279999999997     
  -31.888900000000000        45.274030000000003        83.266800000000003     
  -15.435730000000000        45.812449999999998        87.538319999999999     
  -19.910250000000001        18.733419999999999        96.190650000000005     
   19.458269999999999        13.482950000000001        97.157529999999994     
   5.5688019999999998        16.487120000000001        98.474170000000001     
  -10.216810000000001        64.869150000000005        75.416250000000005     
  -8.3429470000000006        56.550530000000002        82.051410000000004     
  -32.967869999999998       -56.998579999999997        75.261420000000001     
  -16.803709999999999       -66.307040000000001        72.945269999999994     
   1.6038640000000000        48.830889999999997        87.252340000000004     
  -48.425249999999998        56.743110000000001        66.597399999999993     
  -21.086739999999999        57.468200000000003        79.074359999999999     
  -35.647069999999999        57.863090000000000        73.356319999999997     
  -17.432359999999999       -78.650520000000000        59.247010000000003     
   39.570889999999999       -34.415730000000003        85.145179999999996     
   34.416249999999998       -19.696269999999998        91.801839999999999     
  -46.204380000000000       -59.165630000000000        66.064989999999995     
   32.131279999999997        72.762919999999994        60.606420000000000     
   41.379260000000002        30.814720000000001        85.663349999999994     
   50.047100000000000        41.946599999999997        75.734859999999998     
   33.817000000000000       -59.417839999999998        72.978970000000004     
  -15.237080000000001        80.476150000000004        57.370899999999999     
  -50.349469999999997        17.577190000000002        84.592990000000000     
  -57.870800000000003       -13.197559999999999        80.478539999999995     
  -44.977710000000002       0.28631770000000001        89.313620000000000     
  -21.386649999999999       -53.381999999999998        81.810590000000005     
  -31.249739999999999       -41.761800000000001        85.319440000000000     
  -16.212810000000001       -44.683750000000003        87.980159999999998     
  -54.734490000000001       -25.914290000000001        79.577539999999999     
  -1.0417820000000000       -66.001999999999995        75.117580000000004     
  -6.2468550000000000       -54.716549999999998        83.469009999999997     
  -33.981029999999997       -10.894790000000000        93.416240000000002     
  -24.968630000000001        1.9151190000000000        96.813739999999996     
  -4.7302960000000001        30.131029999999999        95.235209999999995     
   14.628410000000001        38.215440000000001        91.244669999999999     
   12.870710000000001        25.202249999999999        95.912409999999994     
  -3.4729340000000000       -40.418170000000003        91.401920000000004     
   26.087109999999999        26.800059999999998        92.742760000000004     
   35.117199999999997        13.027110000000000        92.720420000000004     
  -7.8707989999999999        10.804610000000000        99.102519999999998     
   75.359049999999996        9.6748279999999998        65.018550000000005     
   80.486760000000004        20.560020000000002        55.670169999999999     
   52.591940000000001        79.500680000000003        30.227969999999999     
   53.695149999999998        78.086089999999999       -31.927940000000000     
   53.456980000000001       -78.455439999999996       -31.418080000000000     
   53.448360000000001       -78.858959999999996        30.406199999999998     
   69.640339999999995        58.198300000000003       -41.990250000000003     
   59.348790000000001        69.047899999999998       -41.353459999999998     
   74.487989999999996        36.306049999999999       -55.976869999999998     
   69.392830000000004        49.616230000000002       -52.181080000000001     
   79.228549999999998       -1.0393660000000000       -61.006210000000003     
   57.602950000000000        80.514129999999994        14.120020000000000     
   60.776190000000000        79.382630000000006       -2.1571220000000002     
   67.289829999999995        73.348529999999997        9.5953660000000003     
   61.899340000000002        67.715270000000004        39.788359999999997     
   60.509430000000002       -79.530270000000002       -3.6803469999999998     
   58.466999999999999       -80.138959999999997        12.623680000000000     
   58.908230000000003       -69.800500000000000       -40.714990000000000     
   68.139619999999994       -59.960000000000001       -41.973689999999998     
   63.963270000000001        74.890590000000003       -17.323370000000001     
   72.250500000000002        69.115250000000003       -1.7169540000000001     
   69.169390000000007       -54.175759999999997        47.755450000000003     
   62.184399999999997       -67.337990000000005        39.983680000000000     
   80.796449999999993       -17.660990000000002       -56.214080000000003     
   75.206890000000001        37.691139999999997        54.067570000000003     
   68.281009999999995       -67.942840000000004       -26.860279999999999     
   69.399150000000006        53.324939999999998        48.375700000000002     
   90.920299999999997       -14.475360000000000       -39.037959999999998     
   93.159319999999994       -27.326139999999999       -23.971319999999999     
   96.237449999999995       -11.043600000000000       -24.827249999999999     
   93.130809999999997       -35.532809999999998        8.0044789999999999     
   90.492639999999994       -32.873739999999998        27.025900000000000     
   95.717269999999999       -22.652310000000000        18.029910000000001     
   76.410929999999993        22.998809999999999       -60.269599999999997     
   99.675160000000005        7.2969080000000002        3.4084780000000001     
   98.522069999999999       -5.9422899999999998        16.065210000000000     
   97.436580000000006        14.347009999999999        17.328479999999999     
   90.031210000000002        15.034350000000000       -40.845430000000000     
   87.419079999999994      -0.19017190000000000       -48.557879999999997     
   94.697239999999994        1.2284830000000000       -32.107979999999998     
   90.175899999999999       -41.574359999999999       -11.827130000000000     
   85.060180000000003       -52.553980000000003        1.6867690000000000     
   84.640789999999996       -44.761719999999997       -28.850030000000000     
   84.698269999999994       -32.364220000000003       -42.175350000000002     
   93.171199999999999        33.269770000000001        14.568800000000000     
   92.233310000000003        23.105879999999999        30.969909999999999     
   73.081310000000002       -67.969600000000000       -6.2653710000000000     
   60.998570000000001       -77.312610000000006       -17.376259999999998     
   82.480930000000001        56.536090000000002       0.75209079999999995     
   76.694239999999994        62.342239999999997       -15.213080000000000     
   87.507700000000000        46.617870000000003       -13.006840000000000     
   85.952830000000006       -15.942539999999999        48.558700000000002     
   82.577029999999993       -1.0144160000000000        56.391530000000003     
   90.117919999999998       -3.1265790000000000        43.231769999999997     
   88.977419999999995        13.012499999999999        43.745790000000000     
   98.171139999999994       -15.623210000000000       -10.878500000000001     
   98.005570000000006       -19.429600000000001        4.1711499999999999     
   99.776849999999996       -6.6735689999999996       0.21105409999999999     
   79.481229999999996       -29.249510000000001        53.171419999999998     
   73.051900000000003       -40.864860000000000        54.712730000000001     