  VARIABLES = "X", "Y", "Z" 
  ZONE NODES=4, ELEMENTS=1, DATAPACKING=POINT, ZONETYPE=FEBRICK 
  -2.0906829999999985       -97.177909999999997       -97.616039999999998     
  -2.0906829999999985       -97.177909999999997        97.616039999999998     
  -2.0906829999999985        97.177909999999997        97.616039999999998     
  -2.0906829999999985        97.177909999999997       -97.616039999999998     
 1 2 3 4 1 2 3 4
  VARIABLES = "X", "Y", "Z" 
  ZONE NODES=4, ELEMENTS=1, DATAPACKING=POINT, ZONETYPE=FEBRICK 
  -99.455539999999999       -6.5334093333333341       -97.616039999999998     
  -99.455539999999999       -6.5334093333333341        97.616039999999998     
   37.692689999999999       -6.5334093333333341        97.616039999999998     
   37.692689999999999       -6.5334093333333341       -97.616039999999998     
 1 2 3 4 1 2 3 4
  VARIABLES = "X", "Y", "Z" 
  ZONE NODES=4, ELEMENTS=1, DATAPACKING=POINT, ZONETYPE=FEBRICK 
  -99.455539999999999       -97.177909999999997        10.267646666666666     
  -99.455539999999999        9.7462250000000008        10.267646666666666     
   37.692689999999999        9.7462250000000008        10.267646666666666     
   37.692689999999999       -97.177909999999997        10.267646666666666     
 1 2 3 4 1 2 3 4
  VARIABLES = "X", "Y", "Z" 
  ZONE NODES=4, ELEMENTS=1, DATAPACKING=POINT, ZONETYPE=FEBRICK 
  -52.550190000000008       -97.177909999999997       -97.616039999999998     
  -52.550190000000008       -97.177909999999997        38.540939999999999     
  -52.550190000000008        9.7462250000000008        38.540939999999999     
  -52.550190000000008        9.7462250000000008       -97.616039999999998     
 1 2 3 4 1 2 3 4
  VARIABLES = "X", "Y", "Z" 
  ZONE NODES=4, ELEMENTS=1, DATAPACKING=POINT, ZONETYPE=FEBRICK 
  -99.455539999999999       -57.927733333333329       -97.616039999999998     
  -99.455539999999999       -57.927733333333329        38.540939999999999     
  -37.692689999999999       -57.927733333333329        38.540939999999999     
  -37.692689999999999       -57.927733333333329       -97.616039999999998     
 1 2 3 4 1 2 3 4
  VARIABLES = "X", "Y", "Z" 
  ZONE NODES=4, ELEMENTS=1, DATAPACKING=POINT, ZONETYPE=FEBRICK 
  -77.530910000000006       -58.037039999999998       -97.616039999999998     
  -77.530910000000006       -58.037039999999998        38.540939999999999     
   37.692689999999999       -58.037039999999998        38.540939999999999     
   37.692689999999999       -58.037039999999998       -97.616039999999998     
 1 2 3 4 1 2 3 4
  VARIABLES = "X", "Y", "Z" 
  ZONE NODES=4, ELEMENTS=1, DATAPACKING=POINT, ZONETYPE=FEBRICK 
  -2.1831029999999991       -64.634510000000006       -97.616039999999998     
  -2.1831029999999991       -64.634510000000006        38.540939999999999     
  -2.1831029999999991        9.7462250000000008        38.540939999999999     
  -2.1831029999999991        9.7462250000000008       -97.616039999999998     
 1 2 3 4 1 2 3 4
  VARIABLES = "X", "Y", "Z" 
  ZONE NODES=4, ELEMENTS=1, DATAPACKING=POINT, ZONETYPE=FEBRICK 
  -47.980256666666662       -97.177909999999997       -23.459740000000000     
  -47.980256666666662       -97.177909999999997        97.616039999999998     
  -47.980256666666662        9.7462250000000008        97.616039999999998     
  -47.980256666666662        9.7462250000000008       -23.459740000000000     
 1 2 3 4 1 2 3 4
  VARIABLES = "X", "Y", "Z" 
  ZONE NODES=4, ELEMENTS=1, DATAPACKING=POINT, ZONETYPE=FEBRICK 
  -99.455539999999999       -34.733408666666669       -23.459740000000000     
  -99.455539999999999       -34.733408666666669        97.616039999999998     
  -43.620790000000000       -34.733408666666669        97.616039999999998     
  -43.620790000000000       -34.733408666666669       -23.459740000000000     
 1 2 3 4 1 2 3 4
  VARIABLES = "X", "Y", "Z" 
  ZONE NODES=4, ELEMENTS=1, DATAPACKING=POINT, ZONETYPE=FEBRICK 
  -66.271990000000002       -67.426740000000009       -23.459740000000000     
  -66.271990000000002       -67.426740000000009        97.616039999999998     
   37.692689999999999       -67.426740000000009        97.616039999999998     
   37.692689999999999       -67.426740000000009       -23.459740000000000     
 1 2 3 4 1 2 3 4
  VARIABLES = "X", "Y", "Z" 
  ZONE NODES=4, ELEMENTS=1, DATAPACKING=POINT, ZONETYPE=FEBRICK 
  -45.732693333333337       -86.829580000000007       -23.459740000000000     
  -45.732693333333337       -86.829580000000007        97.616039999999998     
  -45.732693333333337        9.7462250000000008        97.616039999999998     
  -45.732693333333337        9.7462250000000008       -23.459740000000000     
 1 2 3 4 1 2 3 4
  VARIABLES = "X", "Y", "Z" 
  ZONE NODES=4, ELEMENTS=1, DATAPACKING=POINT, ZONETYPE=FEBRICK 
  -99.455539999999999       -40.103589999999997       -7.5954899999999990     
  -99.455539999999999        97.177909999999997       -7.5954899999999990     
   37.692689999999999        97.177909999999997       -7.5954899999999990     
   37.692689999999999       -40.103589999999997       -7.5954899999999990     
 1 2 3 4 1 2 3 4
  VARIABLES = "X", "Y", "Z" 
  ZONE NODES=4, ELEMENTS=1, DATAPACKING=POINT, ZONETYPE=FEBRICK 
  -53.346406666666674       -40.103589999999997       -97.616039999999998     
  -53.346406666666674       -40.103589999999997        24.048710000000000     
  -53.346406666666674        97.177909999999997        24.048710000000000     
  -53.346406666666674        97.177909999999997       -97.616039999999998     
 1 2 3 4 1 2 3 4
  VARIABLES = "X", "Y", "Z" 
  ZONE NODES=4, ELEMENTS=1, DATAPACKING=POINT, ZONETYPE=FEBRICK 
  -99.455539999999999        26.594807333333332       -97.616039999999998     
  -99.455539999999999        26.594807333333332        24.048710000000000     
  -46.076390000000004        26.594807333333332        24.048710000000000     
  -46.076390000000004        26.594807333333332       -97.616039999999998     
 1 2 3 4 1 2 3 4
  VARIABLES = "X", "Y", "Z" 
  ZONE NODES=4, ELEMENTS=1, DATAPACKING=POINT, ZONETYPE=FEBRICK 
  -68.001019999999997        42.591810666666667       -97.616039999999998     
  -68.001019999999997        42.591810666666667        24.048710000000000     
   37.692689999999999        42.591810666666667        24.048710000000000     
   37.692689999999999        42.591810666666667       -97.616039999999998     
 1 2 3 4 1 2 3 4
  VARIABLES = "X", "Y", "Z" 
  ZONE NODES=4, ELEMENTS=1, DATAPACKING=POINT, ZONETYPE=FEBRICK 
  -37.301786666666665        59.063130000000001       -97.616039999999998     
  -37.301786666666665        59.063130000000001        24.048710000000000     
  -37.301786666666665        97.177909999999997        24.048710000000000     
  -37.301786666666665        97.177909999999997       -97.616039999999998     
 1 2 3 4 1 2 3 4
  VARIABLES = "X", "Y", "Z" 
  ZONE NODES=4, ELEMENTS=1, DATAPACKING=POINT, ZONETYPE=FEBRICK 
  -48.957443333333337       -40.103589999999997       -12.849589999999999     
  -48.957443333333337       -40.103589999999997        97.616039999999998     
  -48.957443333333337        97.177909999999997        97.616039999999998     
  -48.957443333333337        97.177909999999997       -12.849589999999999     
 1 2 3 4 1 2 3 4
  VARIABLES = "X", "Y", "Z" 
  ZONE NODES=4, ELEMENTS=1, DATAPACKING=POINT, ZONETYPE=FEBRICK 
  -99.455539999999999        26.214106333333334       -12.849589999999999     
  -99.455539999999999        26.214106333333334        97.616039999999998     
  -21.422470000000001        26.214106333333334        97.616039999999998     
  -21.422470000000001        26.214106333333334       -12.849589999999999     
 1 2 3 4 1 2 3 4
  VARIABLES = "X", "Y", "Z" 
  ZONE NODES=4, ELEMENTS=1, DATAPACKING=POINT, ZONETYPE=FEBRICK 
  -72.255840000000006        67.063333333333333       -12.849589999999999     
  -72.255840000000006        67.063333333333333        97.616039999999998     
   37.692689999999999        67.063333333333333        97.616039999999998     
   37.692689999999999        67.063333333333333       -12.849589999999999     
 1 2 3 4 1 2 3 4
  VARIABLES = "X", "Y", "Z" 
  ZONE NODES=4, ELEMENTS=1, DATAPACKING=POINT, ZONETYPE=FEBRICK 
  -39.293100000000003        64.813220000000001       -12.849589999999999     
  -39.293100000000003        64.813220000000001        97.616039999999998     
  -39.293100000000003        97.177909999999997        97.616039999999998     
  -39.293100000000003        97.177909999999997       -12.849589999999999     
 1 2 3 4 1 2 3 4
  VARIABLES = "X", "Y", "Z" 
  ZONE NODES=4, ELEMENTS=1, DATAPACKING=POINT, ZONETYPE=FEBRICK 
  -37.692689999999999        6.5334093333333323       -97.616039999999998     
  -37.692689999999999        6.5334093333333323        97.616039999999998     
   99.455539999999999        6.5334093333333323        97.616039999999998     
   99.455539999999999        6.5334093333333323       -97.616039999999998     
 1 2 3 4 1 2 3 4
  VARIABLES = "X", "Y", "Z" 
  ZONE NODES=4, ELEMENTS=1, DATAPACKING=POINT, ZONETYPE=FEBRICK 
  -37.692689999999999       -97.177909999999997        7.6218733333333306     
  -37.692689999999999        40.103589999999997        7.6218733333333306     
   99.455539999999999        40.103589999999997        7.6218733333333306     
   99.455539999999999       -97.177909999999997        7.6218733333333306     
 1 2 3 4 1 2 3 4
  VARIABLES = "X", "Y", "Z" 
  ZONE NODES=4, ELEMENTS=1, DATAPACKING=POINT, ZONETYPE=FEBRICK 
   39.071876666666668       -97.177909999999997       -97.616039999999998     
   39.071876666666668       -97.177909999999997        12.849589999999999     
   39.071876666666668        40.103589999999997        12.849589999999999     
   39.071876666666668        40.103589999999997       -97.616039999999998     
 1 2 3 4 1 2 3 4
  VARIABLES = "X", "Y", "Z" 
  ZONE NODES=4, ELEMENTS=1, DATAPACKING=POINT, ZONETYPE=FEBRICK 
  -37.692689999999999       -67.701606666666663       -97.616039999999998     
  -37.692689999999999       -67.701606666666663        12.849589999999999     
   48.124760000000002       -67.701606666666663        12.849589999999999     
   48.124760000000002       -67.701606666666663       -97.616039999999998     
 1 2 3 4 1 2 3 4
  VARIABLES = "X", "Y", "Z" 
  ZONE NODES=4, ELEMENTS=1, DATAPACKING=POINT, ZONETYPE=FEBRICK 
   21.422470000000001       -40.148754666666669       -97.616039999999998     
   21.422470000000001       -40.148754666666669        12.849589999999999     
   99.455539999999999       -40.148754666666669        12.849589999999999     
   99.455539999999999       -40.148754666666669       -97.616039999999998     
 1 2 3 4 1 2 3 4
  VARIABLES = "X", "Y", "Z" 
  ZONE NODES=4, ELEMENTS=1, DATAPACKING=POINT, ZONETYPE=FEBRICK 
   83.479056666666665       -65.033370000000005       -97.616039999999998     
   83.479056666666665       -65.033370000000005        12.849589999999999     
   83.479056666666665        40.103589999999997        12.849589999999999     
   83.479056666666665        40.103589999999997       -97.616039999999998     
 1 2 3 4 1 2 3 4
  VARIABLES = "X", "Y", "Z" 
  ZONE NODES=4, ELEMENTS=1, DATAPACKING=POINT, ZONETYPE=FEBRICK 
   41.075254999999999       -97.177909999999997       -23.969560000000001     
   41.075254999999999       -97.177909999999997        97.616039999999998     
   41.075254999999999        40.103589999999997        97.616039999999998     
   41.075254999999999        40.103589999999997       -23.969560000000001     
 1 2 3 4 1 2 3 4
  VARIABLES = "X", "Y", "Z" 
  ZONE NODES=4, ELEMENTS=1, DATAPACKING=POINT, ZONETYPE=FEBRICK 
  -37.692689999999999       -73.706986666666666       -23.969560000000001     
  -37.692689999999999       -73.706986666666666        97.616039999999998     
   68.001019999999997       -73.706986666666666        97.616039999999998     
   68.001019999999997       -73.706986666666666       -23.969560000000001     
 1 2 3 4 1 2 3 4
  VARIABLES = "X", "Y", "Z" 
  ZONE NODES=4, ELEMENTS=1, DATAPACKING=POINT, ZONETYPE=FEBRICK 
   19.782360000000001       -26.699801666666662       -23.969560000000001     
   19.782360000000001       -26.699801666666662        97.616039999999998     
   99.455539999999999       -26.699801666666662        97.616039999999998     
   99.455539999999999       -26.699801666666662       -23.969560000000001     
 1 2 3 4 1 2 3 4
  VARIABLES = "X", "Y", "Z" 
  ZONE NODES=4, ELEMENTS=1, DATAPACKING=POINT, ZONETYPE=FEBRICK 
   66.033436666666674       -59.281059999999997       -23.969560000000001     
   66.033436666666674       -59.281059999999997        97.616039999999998     
   66.033436666666674        40.103589999999997        97.616039999999998     
   66.033436666666674        40.103589999999997       -23.969560000000001     
 1 2 3 4 1 2 3 4
  VARIABLES = "X", "Y", "Z" 
  ZONE NODES=4, ELEMENTS=1, DATAPACKING=POINT, ZONETYPE=FEBRICK 
  -37.692689999999999       -9.7462250000000008       -9.1083733333333345     
  -37.692689999999999        97.177909999999997       -9.1083733333333345     
   99.455539999999999        97.177909999999997       -9.1083733333333345     
   99.455539999999999       -9.7462250000000008       -9.1083733333333345     
 1 2 3 4 1 2 3 4
  VARIABLES = "X", "Y", "Z" 
  ZONE NODES=4, ELEMENTS=1, DATAPACKING=POINT, ZONETYPE=FEBRICK 
   39.818130000000004       -9.7462250000000008       -97.616039999999998     
   39.818130000000004       -9.7462250000000008        3.6887200000000000     
   39.818130000000004        97.177909999999997        3.6887200000000000     
   39.818130000000004        97.177909999999997       -97.616039999999998     
 1 2 3 4 1 2 3 4
  VARIABLES = "X", "Y", "Z" 
  ZONE NODES=4, ELEMENTS=1, DATAPACKING=POINT, ZONETYPE=FEBRICK 
  -37.692689999999999        44.266639999999995       -97.616039999999998     
  -37.692689999999999        44.266639999999995        3.6887200000000000     
   58.175899999999999        44.266639999999995        3.6887200000000000     
   58.175899999999999        44.266639999999995       -97.616039999999998     
 1 2 3 4 1 2 3 4
  VARIABLES = "X", "Y", "Z" 
  ZONE NODES=4, ELEMENTS=1, DATAPACKING=POINT, ZONETYPE=FEBRICK 
   21.422470000000001        15.731641999999999       -97.616039999999998     
   21.422470000000001        15.731641999999999        3.6887200000000000     
   99.455539999999999        15.731641999999999        3.6887200000000000     
   99.455539999999999        15.731641999999999       -97.616039999999998     
 1 2 3 4 1 2 3 4
  VARIABLES = "X", "Y", "Z" 
  ZONE NODES=4, ELEMENTS=1, DATAPACKING=POINT, ZONETYPE=FEBRICK 
   73.499176666666656       -4.0828740000000003       -97.616039999999998     
   73.499176666666656       -4.0828740000000003        3.6887200000000000     
   73.499176666666656        97.177909999999997        3.6887200000000000     
   73.499176666666656        97.177909999999997       -97.616039999999998     
 1 2 3 4 1 2 3 4
  VARIABLES = "X", "Y", "Z" 
  ZONE NODES=4, ELEMENTS=1, DATAPACKING=POINT, ZONETYPE=FEBRICK 
   21.805620000000001       -9.7462250000000008       -33.341200000000001     
   21.805620000000001       -9.7462250000000008        97.616039999999998     
   21.805620000000001        97.177909999999997        97.616039999999998     
   21.805620000000001        97.177909999999997       -33.341200000000001     
 1 2 3 4 1 2 3 4
  VARIABLES = "X", "Y", "Z" 
  ZONE NODES=4, ELEMENTS=1, DATAPACKING=POINT, ZONETYPE=FEBRICK 
  -37.692689999999999        35.121323333333336       -33.341200000000001     
  -37.692689999999999        35.121323333333336        97.616039999999998     
   46.076390000000004        35.121323333333336        97.616039999999998     
   46.076390000000004        35.121323333333336       -33.341200000000001     
 1 2 3 4 1 2 3 4
  VARIABLES = "X", "Y", "Z" 
  ZONE NODES=4, ELEMENTS=1, DATAPACKING=POINT, ZONETYPE=FEBRICK 
   1.8441633333333327        64.451480000000004       -33.341200000000001     
   1.8441633333333327        64.451480000000004        97.616039999999998     
   1.8441633333333327        97.177909999999997        97.616039999999998     
   1.8441633333333327        97.177909999999997       -33.341200000000001     
 1 2 3 4 1 2 3 4
  VARIABLES = "X", "Y", "Z" 
  ZONE NODES=4, ELEMENTS=1, DATAPACKING=POINT, ZONETYPE=FEBRICK 
   34.043270000000000        27.555148333333332       -33.341200000000001     
   34.043270000000000        27.555148333333332        97.616039999999998     
   99.455539999999999        27.555148333333332        97.616039999999998     
   99.455539999999999        27.555148333333332       -33.341200000000001     
 1 2 3 4 1 2 3 4
  VARIABLES = "X", "Y", "Z" 
  ZONE NODES=4, ELEMENTS=1, DATAPACKING=POINT, ZONETYPE=FEBRICK 
   49.755623333333340        40.103589999999997       -33.341200000000001     
   49.755623333333340        40.103589999999997        97.616039999999998     
   49.755623333333340        97.177909999999997        97.616039999999998     
   49.755623333333340        97.177909999999997       -33.341200000000001     
 1 2 3 4 1 2 3 4
